s -t 0.000169789 -Hs 0 -Hd -1 -Ni 0 -Nx 100.00 -Ny 200.00 -Nz 0.00 -Ne -1.000000 -Nl RTR -Nw --- -Ma 0 -Md 0 -Ms 0 -Mt 0 -Is 0.255 -Id -1.255 -It UM-OLSR -Il 48 -If 0 -Ii 0 -Iv 32 -P olsr -Pn 1 -Ps 0 [-Pt HELLO -Po 0 -Ph 0 -Pms 0] 
r -t 0.000348237 -Hs 3 -Hd -1 -Ni 3 -Nx 150.00 -Ny 75.00 -Nz 0.00 -Ne -1.000000 -Nl RTR -Nw --- -Ma 0 -Md ffffffff -Ms 0 -Mt 0 -Is 0.255 -Id -1.255 -It UM-OLSR -Il 48 -If 0 -Ii 0 -Iv 32 -P olsr -Pn 1 -Ps 0 [-Pt HELLO -Po 0 -Ph 0 -Pms 0] 
r -t 0.000348275 -Hs 5 -Hd -1 -Ni 5 -Nx 225.00 -Ny 275.00 -Nz 0.00 -Ne -1.000000 -Nl RTR -Nw --- -Ma 0 -Md ffffffff -Ms 0 -Mt 0 -Is 0.255 -Id -1.255 -It UM-OLSR -Il 48 -If 0 -Ii 0 -Iv 32 -P olsr -Pn 1 -Ps 0 [-Pt HELLO -Po 0 -Ph 0 -Pms 0] 
r -t 0.000348455 -Hs 1 -Hd -1 -Ni 1 -Nx 300.00 -Ny 200.00 -Nz 0.00 -Ne -1.000000 -Nl RTR -Nw --- -Ma 0 -Md ffffffff -Ms 0 -Mt 0 -Is 0.255 -Id -1.255 -It UM-OLSR -Il 48 -If 0 -Ii 0 -Iv 32 -P olsr -Pn 1 -Ps 0 [-Pt HELLO -Po 0 -Ph 0 -Pms 0] 
r -t 0.000348501 -Hs 7 -Hd -1 -Ni 7 -Nx 175.00 -Ny 400.00 -Nz 0.00 -Ne -1.000000 -Nl RTR -Nw --- -Ma 0 -Md ffffffff -Ms 0 -Mt 0 -Is 0.255 -Id -1.255 -It UM-OLSR -Il 48 -If 0 -Ii 0 -Iv 32 -P olsr -Pn 1 -Ps 0 [-Pt HELLO -Po 0 -Ph 0 -Pms 0] 
r -t 0.000348792 -Hs 8 -Hd -1 -Ni 8 -Nx 75.00 -Ny 500.00 -Nz 0.00 -Ne -1.000000 -Nl RTR -Nw --- -Ma 0 -Md ffffffff -Ms 0 -Mt 0 -Is 0.255 -Id -1.255 -It UM-OLSR -Il 48 -If 0 -Ii 0 -Iv 32 -P olsr -Pn 1 -Ps 0 [-Pt HELLO -Po 0 -Ph 0 -Pms 0] 
r -t 0.000348946 -Hs 6 -Hd -1 -Ni 6 -Nx 400.00 -Ny 375.00 -Nz 0.00 -Ne -1.000000 -Nl RTR -Nw --- -Ma 0 -Md ffffffff -Ms 0 -Mt 0 -Is 0.255 -Id -1.255 -It UM-OLSR -Il 48 -If 0 -Ii 0 -Iv 32 -P olsr -Pn 1 -Ps 0 [-Pt HELLO -Po 0 -Ph 0 -Pms 0] 
s -t 0.044061336 -Hs 1 -Hd -1 -Ni 1 -Nx 300.00 -Ny 200.00 -Nz 0.00 -Ne -1.000000 -Nl RTR -Nw --- -Ma 0 -Md 0 -Ms 0 -Mt 0 -Is 1.255 -Id -1.255 -It UM-OLSR -Il 48 -If 0 -Ii 1 -Iv 32 -P olsr -Pn 1 -Ps 0 [-Pt HELLO -Po 1 -Ph 0 -Pms 0] 
r -t 0.044239689 -Hs 5 -Hd -1 -Ni 5 -Nx 225.00 -Ny 275.00 -Nz 0.00 -Ne -1.000000 -Nl RTR -Nw --- -Ma 0 -Md ffffffff -Ms 1 -Mt 0 -Is 1.255 -Id -1.255 -It UM-OLSR -Il 48 -If 0 -Ii 1 -Iv 32 -P olsr -Pn 1 -Ps 0 [-Pt HELLO -Po 1 -Ph 0 -Pms 0] 
r -t 0.044239987 -Hs 3 -Hd -1 -Ni 3 -Nx 150.00 -Ny 75.00 -Nz 0.00 -Ne -1.000000 -Nl RTR -Nw --- -Ma 0 -Md ffffffff -Ms 1 -Mt 0 -Is 1.255 -Id -1.255 -It UM-OLSR -Il 48 -If 0 -Ii 1 -Iv 32 -P olsr -Pn 1 -Ps 0 [-Pt HELLO -Po 1 -Ph 0 -Pms 0] 
r -t 0.044240002 -Hs 0 -Hd -1 -Ni 0 -Nx 100.00 -Ny 200.00 -Nz 0.00 -Ne -1.000000 -Nl RTR -Nw --- -Ma 0 -Md ffffffff -Ms 1 -Mt 0 -Is 1.255 -Id -1.255 -It UM-OLSR -Il 48 -If 0 -Ii 1 -Iv 32 -P olsr -Pn 1 -Ps 0 [-Pt HELLO -Po 1 -Ph 0 -Pms 0] 
r -t 0.044240008 -Hs 6 -Hd -1 -Ni 6 -Nx 400.00 -Ny 375.00 -Nz 0.00 -Ne -1.000000 -Nl RTR -Nw --- -Ma 0 -Md ffffffff -Ms 1 -Mt 0 -Is 1.255 -Id -1.255 -It UM-OLSR -Il 48 -If 0 -Ii 1 -Iv 32 -P olsr -Pn 1 -Ps 0 [-Pt HELLO -Po 1 -Ph 0 -Pms 0] 
r -t 0.044240122 -Hs 7 -Hd -1 -Ni 7 -Nx 175.00 -Ny 400.00 -Nz 0.00 -Ne -1.000000 -Nl RTR -Nw --- -Ma 0 -Md ffffffff -Ms 1 -Mt 0 -Is 1.255 -Id -1.255 -It UM-OLSR -Il 48 -If 0 -Ii 1 -Iv 32 -P olsr -Pn 1 -Ps 0 [-Pt HELLO -Po 1 -Ph 0 -Pms 0] 
r -t 0.044240586 -Hs 8 -Hd -1 -Ni 8 -Nx 75.00 -Ny 500.00 -Nz 0.00 -Ne -1.000000 -Nl RTR -Nw --- -Ma 0 -Md ffffffff -Ms 1 -Mt 0 -Is 1.255 -Id -1.255 -It UM-OLSR -Il 48 -If 0 -Ii 1 -Iv 32 -P olsr -Pn 1 -Ps 0 [-Pt HELLO -Po 1 -Ph 0 -Pms 0] 
r -t 0.044240605 -Hs 4 -Hd -1 -Ni 4 -Nx 650.00 -Ny 50.00 -Nz 0.00 -Ne -1.000000 -Nl RTR -Nw --- -Ma 0 -Md ffffffff -Ms 1 -Mt 0 -Is 1.255 -Id -1.255 -It UM-OLSR -Il 48 -If 0 -Ii 1 -Iv 32 -P olsr -Pn 1 -Ps 0 [-Pt HELLO -Po 1 -Ph 0 -Pms 0] 
r -t 0.044240723 -Hs 9 -Hd -1 -Ni 9 -Nx 525.00 -Ny 550.00 -Nz 0.00 -Ne -1.000000 -Nl RTR -Nw --- -Ma 0 -Md ffffffff -Ms 1 -Mt 0 -Is 1.255 -Id -1.255 -It UM-OLSR -Il 48 -If 0 -Ii 1 -Iv 32 -P olsr -Pn 1 -Ps 0 [-Pt HELLO -Po 1 -Ph 0 -Pms 0] 
r -t 0.044240836 -Hs 2 -Hd -1 -Ni 2 -Nx 750.00 -Ny 200.00 -Nz 0.00 -Ne -1.000000 -Nl RTR -Nw --- -Ma 0 -Md ffffffff -Ms 1 -Mt 0 -Is 1.255 -Id -1.255 -It UM-OLSR -Il 48 -If 0 -Ii 1 -Iv 32 -P olsr -Pn 1 -Ps 0 [-Pt HELLO -Po 1 -Ph 0 -Pms 0] 
s -t 0.056904124 -Hs 5 -Hd -1 -Ni 5 -Nx 225.00 -Ny 275.00 -Nz 0.00 -Ne -1.000000 -Nl RTR -Nw --- -Ma 0 -Md 0 -Ms 0 -Mt 0 -Is 5.255 -Id -1.255 -It UM-OLSR -Il 48 -If 0 -Ii 2 -Iv 32 -P olsr -Pn 1 -Ps 0 [-Pt HELLO -Po 5 -Ph 0 -Pms 0] 
r -t 0.057082478 -Hs 1 -Hd -1 -Ni 1 -Nx 300.00 -Ny 200.00 -Nz 0.00 -Ne -1.000000 -Nl RTR -Nw --- -Ma 0 -Md ffffffff -Ms 5 -Mt 0 -Is 5.255 -Id -1.255 -It UM-OLSR -Il 48 -If 0 -Ii 2 -Iv 32 -P olsr -Pn 1 -Ps 0 [-Pt HELLO -Po 5 -Ph 0 -Pms 0] 
r -t 0.057082573 -Hs 7 -Hd -1 -Ni 7 -Nx 175.00 -Ny 400.00 -Nz 0.00 -Ne -1.000000 -Nl RTR -Nw --- -Ma 0 -Md ffffffff -Ms 5 -Mt 0 -Is 5.255 -Id -1.255 -It UM-OLSR -Il 48 -If 0 -Ii 2 -Iv 32 -P olsr -Pn 1 -Ps 0 [-Pt HELLO -Po 5 -Ph 0 -Pms 0] 
r -t 0.057082610 -Hs 0 -Hd -1 -Ni 0 -Nx 100.00 -Ny 200.00 -Nz 0.00 -Ne -1.000000 -Nl RTR -Nw --- -Ma 0 -Md ffffffff -Ms 5 -Mt 0 -Is 5.255 -Id -1.255 -It UM-OLSR -Il 48 -If 0 -Ii 2 -Iv 32 -P olsr -Pn 1 -Ps 0 [-Pt HELLO -Po 5 -Ph 0 -Pms 0] 
r -t 0.057082796 -Hs 6 -Hd -1 -Ni 6 -Nx 400.00 -Ny 375.00 -Nz 0.00 -Ne -1.000000 -Nl RTR -Nw --- -Ma 0 -Md ffffffff -Ms 5 -Mt 0 -Is 5.255 -Id -1.255 -It UM-OLSR -Il 48 -If 0 -Ii 2 -Iv 32 -P olsr -Pn 1 -Ps 0 [-Pt HELLO -Po 5 -Ph 0 -Pms 0] 
r -t 0.057082836 -Hs 3 -Hd -1 -Ni 3 -Nx 150.00 -Ny 75.00 -Nz 0.00 -Ne -1.000000 -Nl RTR -Nw --- -Ma 0 -Md ffffffff -Ms 5 -Mt 0 -Is 5.255 -Id -1.255 -It UM-OLSR -Il 48 -If 0 -Ii 2 -Iv 32 -P olsr -Pn 1 -Ps 0 [-Pt HELLO -Po 5 -Ph 0 -Pms 0] 
r -t 0.057083026 -Hs 8 -Hd -1 -Ni 8 -Nx 75.00 -Ny 500.00 -Nz 0.00 -Ne -1.000000 -Nl RTR -Nw --- -Ma 0 -Md ffffffff -Ms 5 -Mt 0 -Is 5.255 -Id -1.255 -It UM-OLSR -Il 48 -If 0 -Ii 2 -Iv 32 -P olsr -Pn 1 -Ps 0 [-Pt HELLO -Po 5 -Ph 0 -Pms 0] 
r -t 0.057083481 -Hs 9 -Hd -1 -Ni 9 -Nx 525.00 -Ny 550.00 -Nz 0.00 -Ne -1.000000 -Nl RTR -Nw --- -Ma 0 -Md ffffffff -Ms 5 -Mt 0 -Is 5.255 -Id -1.255 -It UM-OLSR -Il 48 -If 0 -Ii 2 -Iv 32 -P olsr -Pn 1 -Ps 0 [-Pt HELLO -Po 5 -Ph 0 -Pms 0] 
r -t 0.057083727 -Hs 4 -Hd -1 -Ni 4 -Nx 650.00 -Ny 50.00 -Nz 0.00 -Ne -1.000000 -Nl RTR -Nw --- -Ma 0 -Md ffffffff -Ms 5 -Mt 0 -Is 5.255 -Id -1.255 -It UM-OLSR -Il 48 -If 0 -Ii 2 -Iv 32 -P olsr -Pn 1 -Ps 0 [-Pt HELLO -Po 5 -Ph 0 -Pms 0] 
r -t 0.057083892 -Hs 2 -Hd -1 -Ni 2 -Nx 750.00 -Ny 200.00 -Nz 0.00 -Ne -1.000000 -Nl RTR -Nw --- -Ma 0 -Md ffffffff -Ms 5 -Mt 0 -Is 5.255 -Id -1.255 -It UM-OLSR -Il 48 -If 0 -Ii 2 -Iv 32 -P olsr -Pn 1 -Ps 0 [-Pt HELLO -Po 5 -Ph 0 -Pms 0] 
s -t 0.082072703 -Hs 4 -Hd -1 -Ni 4 -Nx 650.00 -Ny 50.00 -Nz 0.00 -Ne -1.000000 -Nl RTR -Nw --- -Ma 0 -Md 0 -Ms 0 -Mt 0 -Is 4.255 -Id -1.255 -It UM-OLSR -Il 48 -If 0 -Ii 3 -Iv 32 -P olsr -Pn 1 -Ps 0 [-Pt HELLO -Po 4 -Ph 0 -Pms 0] 
r -t 0.082251304 -Hs 2 -Hd -1 -Ni 2 -Nx 750.00 -Ny 200.00 -Nz 0.00 -Ne -1.000000 -Nl RTR -Nw --- -Ma 0 -Md ffffffff -Ms 4 -Mt 0 -Is 4.255 -Id -1.255 -It UM-OLSR -Il 48 -If 0 -Ii 3 -Iv 32 -P olsr -Pn 1 -Ps 0 [-Pt HELLO -Po 4 -Ph 0 -Pms 0] 
r -t 0.082251973 -Hs 1 -Hd -1 -Ni 1 -Nx 300.00 -Ny 200.00 -Nz 0.00 -Ne -1.000000 -Nl RTR -Nw --- -Ma 0 -Md ffffffff -Ms 4 -Mt 0 -Is 4.255 -Id -1.255 -It UM-OLSR -Il 48 -If 0 -Ii 3 -Iv 32 -P olsr -Pn 1 -Ps 0 [-Pt HELLO -Po 4 -Ph 0 -Pms 0] 
r -t 0.082252070 -Hs 6 -Hd -1 -Ni 6 -Nx 400.00 -Ny 375.00 -Nz 0.00 -Ne -1.000000 -Nl RTR -Nw --- -Ma 0 -Md ffffffff -Ms 4 -Mt 0 -Is 4.255 -Id -1.255 -It UM-OLSR -Il 48 -If 0 -Ii 3 -Iv 32 -P olsr -Pn 1 -Ps 0 [-Pt HELLO -Po 4 -Ph 0 -Pms 0] 
r -t 0.082252306 -Hs 5 -Hd -1 -Ni 5 -Nx 225.00 -Ny 275.00 -Nz 0.00 -Ne -1.000000 -Nl RTR -Nw --- -Ma 0 -Md ffffffff -Ms 4 -Mt 0 -Is 4.255 -Id -1.255 -It UM-OLSR -Il 48 -If 0 -Ii 3 -Iv 32 -P olsr -Pn 1 -Ps 0 [-Pt HELLO -Po 4 -Ph 0 -Pms 0] 
r -t 0.082252372 -Hs 3 -Hd -1 -Ni 3 -Nx 150.00 -Ny 75.00 -Nz 0.00 -Ne -1.000000 -Nl RTR -Nw --- -Ma 0 -Md ffffffff -Ms 4 -Mt 0 -Is 4.255 -Id -1.255 -It UM-OLSR -Il 48 -If 0 -Ii 3 -Iv 32 -P olsr -Pn 1 -Ps 0 [-Pt HELLO -Po 4 -Ph 0 -Pms 0] 
r -t 0.082252421 -Hs 9 -Hd -1 -Ni 9 -Nx 525.00 -Ny 550.00 -Nz 0.00 -Ne -1.000000 -Nl RTR -Nw --- -Ma 0 -Md ffffffff -Ms 4 -Mt 0 -Is 4.255 -Id -1.255 -It UM-OLSR -Il 48 -If 0 -Ii 3 -Iv 32 -P olsr -Pn 1 -Ps 0 [-Pt HELLO -Po 4 -Ph 0 -Pms 0] 
s -t 0.087402627 -Hs 6 -Hd -1 -Ni 6 -Nx 400.00 -Ny 375.00 -Nz 0.00 -Ne -1.000000 -Nl RTR -Nw --- -Ma 0 -Md 0 -Ms 0 -Mt 0 -Is 6.255 -Id -1.255 -It UM-OLSR -Il 48 -If 0 -Ii 4 -Iv 32 -P olsr -Pn 1 -Ps 0 [-Pt HELLO -Po 6 -Ph 0 -Pms 0] 
r -t 0.087581299 -Hs 1 -Hd -1 -Ni 1 -Nx 300.00 -Ny 200.00 -Nz 0.00 -Ne -1.000000 -Nl RTR -Nw --- -Ma 0 -Md ffffffff -Ms 6 -Mt 0 -Is 6.255 -Id -1.255 -It UM-OLSR -Il 48 -If 0 -Ii 4 -Iv 32 -P olsr -Pn 1 -Ps 0 [-Pt HELLO -Po 6 -Ph 0 -Pms 0] 
r -t 0.087581299 -Hs 5 -Hd -1 -Ni 5 -Nx 225.00 -Ny 275.00 -Nz 0.00 -Ne -1.000000 -Nl RTR -Nw --- -Ma 0 -Md ffffffff -Ms 6 -Mt 0 -Is 6.255 -Id -1.255 -It UM-OLSR -Il 48 -If 0 -Ii 4 -Iv 32 -P olsr -Pn 1 -Ps 0 [-Pt HELLO -Po 6 -Ph 0 -Pms 0] 
r -t 0.087581344 -Hs 9 -Hd -1 -Ni 9 -Nx 525.00 -Ny 550.00 -Nz 0.00 -Ne -1.000000 -Nl RTR -Nw --- -Ma 0 -Md ffffffff -Ms 6 -Mt 0 -Is 6.255 -Id -1.255 -It UM-OLSR -Il 48 -If 0 -Ii 4 -Iv 32 -P olsr -Pn 1 -Ps 0 [-Pt HELLO -Po 6 -Ph 0 -Pms 0] 
r -t 0.087581382 -Hs 7 -Hd -1 -Ni 7 -Nx 175.00 -Ny 400.00 -Nz 0.00 -Ne -1.000000 -Nl RTR -Nw --- -Ma 0 -Md ffffffff -Ms 6 -Mt 0 -Is 6.255 -Id -1.255 -It UM-OLSR -Il 48 -If 0 -Ii 4 -Iv 32 -P olsr -Pn 1 -Ps 0 [-Pt HELLO -Po 6 -Ph 0 -Pms 0] 
r -t 0.087581785 -Hs 0 -Hd -1 -Ni 0 -Nx 100.00 -Ny 200.00 -Nz 0.00 -Ne -1.000000 -Nl RTR -Nw --- -Ma 0 -Md ffffffff -Ms 6 -Mt 0 -Is 6.255 -Id -1.255 -It UM-OLSR -Il 48 -If 0 -Ii 4 -Iv 32 -P olsr -Pn 1 -Ps 0 [-Pt HELLO -Po 6 -Ph 0 -Pms 0] 
r -t 0.087581788 -Hs 8 -Hd -1 -Ni 8 -Nx 75.00 -Ny 500.00 -Nz 0.00 -Ne -1.000000 -Nl RTR -Nw --- -Ma 0 -Md ffffffff -Ms 6 -Mt 0 -Is 6.255 -Id -1.255 -It UM-OLSR -Il 48 -If 0 -Ii 4 -Iv 32 -P olsr -Pn 1 -Ps 0 [-Pt HELLO -Po 6 -Ph 0 -Pms 0] 
r -t 0.087581929 -Hs 3 -Hd -1 -Ni 3 -Nx 150.00 -Ny 75.00 -Nz 0.00 -Ne -1.000000 -Nl RTR -Nw --- -Ma 0 -Md ffffffff -Ms 6 -Mt 0 -Is 6.255 -Id -1.255 -It UM-OLSR -Il 48 -If 0 -Ii 4 -Iv 32 -P olsr -Pn 1 -Ps 0 [-Pt HELLO -Po 6 -Ph 0 -Pms 0] 
r -t 0.087581931 -Hs 2 -Hd -1 -Ni 2 -Nx 750.00 -Ny 200.00 -Nz 0.00 -Ne -1.000000 -Nl RTR -Nw --- -Ma 0 -Md ffffffff -Ms 6 -Mt 0 -Is 6.255 -Id -1.255 -It UM-OLSR -Il 48 -If 0 -Ii 4 -Iv 32 -P olsr -Pn 1 -Ps 0 [-Pt HELLO -Po 6 -Ph 0 -Pms 0] 
r -t 0.087581994 -Hs 4 -Hd -1 -Ni 4 -Nx 650.00 -Ny 50.00 -Nz 0.00 -Ne -1.000000 -Nl RTR -Nw --- -Ma 0 -Md ffffffff -Ms 6 -Mt 0 -Is 6.255 -Id -1.255 -It UM-OLSR -Il 48 -If 0 -Ii 4 -Iv 32 -P olsr -Pn 1 -Ps 0 [-Pt HELLO -Po 6 -Ph 0 -Pms 0] 
s -t 0.156480886 -Hs 2 -Hd -1 -Ni 2 -Nx 750.00 -Ny 200.00 -Nz 0.00 -Ne -1.000000 -Nl RTR -Nw --- -Ma 0 -Md 0 -Ms 0 -Mt 0 -Is 2.255 -Id -1.255 -It UM-OLSR -Il 48 -If 0 -Ii 5 -Iv 32 -P olsr -Pn 1 -Ps 0 [-Pt HELLO -Po 2 -Ph 0 -Pms 0] 
r -t 0.156659487 -Hs 4 -Hd -1 -Ni 4 -Nx 650.00 -Ny 50.00 -Nz 0.00 -Ne -1.000000 -Nl RTR -Nw --- -Ma 0 -Md ffffffff -Ms 2 -Mt 0 -Is 2.255 -Id -1.255 -It UM-OLSR -Il 48 -If 0 -Ii 5 -Iv 32 -P olsr -Pn 1 -Ps 0 [-Pt HELLO -Po 2 -Ph 0 -Pms 0] 
r -t 0.156660190 -Hs 6 -Hd -1 -Ni 6 -Nx 400.00 -Ny 375.00 -Nz 0.00 -Ne -1.000000 -Nl RTR -Nw --- -Ma 0 -Md ffffffff -Ms 2 -Mt 0 -Is 2.255 -Id -1.255 -It UM-OLSR -Il 48 -If 0 -Ii 5 -Iv 32 -P olsr -Pn 1 -Ps 0 [-Pt HELLO -Po 2 -Ph 0 -Pms 0] 
r -t 0.156660273 -Hs 9 -Hd -1 -Ni 9 -Nx 525.00 -Ny 550.00 -Nz 0.00 -Ne -1.000000 -Nl RTR -Nw --- -Ma 0 -Md ffffffff -Ms 2 -Mt 0 -Is 2.255 -Id -1.255 -It UM-OLSR -Il 48 -If 0 -Ii 5 -Iv 32 -P olsr -Pn 1 -Ps 0 [-Pt HELLO -Po 2 -Ph 0 -Pms 0] 
r -t 0.156660386 -Hs 1 -Hd -1 -Ni 1 -Nx 300.00 -Ny 200.00 -Nz 0.00 -Ne -1.000000 -Nl RTR -Nw --- -Ma 0 -Md ffffffff -Ms 2 -Mt 0 -Is 2.255 -Id -1.255 -It UM-OLSR -Il 48 -If 0 -Ii 5 -Iv 32 -P olsr -Pn 1 -Ps 0 [-Pt HELLO -Po 2 -Ph 0 -Pms 0] 
r -t 0.156660654 -Hs 5 -Hd -1 -Ni 5 -Nx 225.00 -Ny 275.00 -Nz 0.00 -Ne -1.000000 -Nl RTR -Nw --- -Ma 0 -Md ffffffff -Ms 2 -Mt 0 -Is 2.255 -Id -1.255 -It UM-OLSR -Il 48 -If 0 -Ii 5 -Iv 32 -P olsr -Pn 1 -Ps 0 [-Pt HELLO -Po 2 -Ph 0 -Pms 0] 
s -t 0.174370513 -Hs 7 -Hd -1 -Ni 7 -Nx 175.00 -Ny 400.00 -Nz 0.00 -Ne -1.000000 -Nl RTR -Nw --- -Ma 0 -Md 0 -Ms 0 -Mt 0 -Is 7.255 -Id -1.255 -It UM-OLSR -Il 48 -If 0 -Ii 6 -Iv 32 -P olsr -Pn 1 -Ps 0 [-Pt HELLO -Po 7 -Ph 0 -Pms 0] 
r -t 0.174548962 -Hs 5 -Hd -1 -Ni 5 -Nx 225.00 -Ny 275.00 -Nz 0.00 -Ne -1.000000 -Nl RTR -Nw --- -Ma 0 -Md ffffffff -Ms 7 -Mt 0 -Is 7.255 -Id -1.255 -It UM-OLSR -Il 48 -If 0 -Ii 6 -Iv 32 -P olsr -Pn 1 -Ps 0 [-Pt HELLO -Po 7 -Ph 0 -Pms 0] 
r -t 0.174548984 -Hs 8 -Hd -1 -Ni 8 -Nx 75.00 -Ny 500.00 -Nz 0.00 -Ne -1.000000 -Nl RTR -Nw --- -Ma 0 -Md ffffffff -Ms 7 -Mt 0 -Is 7.255 -Id -1.255 -It UM-OLSR -Il 48 -If 0 -Ii 6 -Iv 32 -P olsr -Pn 1 -Ps 0 [-Pt HELLO -Po 7 -Ph 0 -Pms 0] 
r -t 0.174549225 -Hs 0 -Hd -1 -Ni 0 -Nx 100.00 -Ny 200.00 -Nz 0.00 -Ne -1.000000 -Nl RTR -Nw --- -Ma 0 -Md ffffffff -Ms 7 -Mt 0 -Is 7.255 -Id -1.255 -It UM-OLSR -Il 48 -If 0 -Ii 6 -Iv 32 -P olsr -Pn 1 -Ps 0 [-Pt HELLO -Po 7 -Ph 0 -Pms 0] 
r -t 0.174549267 -Hs 6 -Hd -1 -Ni 6 -Nx 400.00 -Ny 375.00 -Nz 0.00 -Ne -1.000000 -Nl RTR -Nw --- -Ma 0 -Md ffffffff -Ms 7 -Mt 0 -Is 7.255 -Id -1.255 -It UM-OLSR -Il 48 -If 0 -Ii 6 -Iv 32 -P olsr -Pn 1 -Ps 0 [-Pt HELLO -Po 7 -Ph 0 -Pms 0] 
r -t 0.174549299 -Hs 1 -Hd -1 -Ni 1 -Nx 300.00 -Ny 200.00 -Nz 0.00 -Ne -1.000000 -Nl RTR -Nw --- -Ma 0 -Md ffffffff -Ms 7 -Mt 0 -Is 7.255 -Id -1.255 -It UM-OLSR -Il 48 -If 0 -Ii 6 -Iv 32 -P olsr -Pn 1 -Ps 0 [-Pt HELLO -Po 7 -Ph 0 -Pms 0] 
r -t 0.174549599 -Hs 3 -Hd -1 -Ni 3 -Nx 150.00 -Ny 75.00 -Nz 0.00 -Ne -1.000000 -Nl RTR -Nw --- -Ma 0 -Md ffffffff -Ms 7 -Mt 0 -Is 7.255 -Id -1.255 -It UM-OLSR -Il 48 -If 0 -Ii 6 -Iv 32 -P olsr -Pn 1 -Ps 0 [-Pt HELLO -Po 7 -Ph 0 -Pms 0] 
r -t 0.174549782 -Hs 9 -Hd -1 -Ni 9 -Nx 525.00 -Ny 550.00 -Nz 0.00 -Ne -1.000000 -Nl RTR -Nw --- -Ma 0 -Md ffffffff -Ms 7 -Mt 0 -Is 7.255 -Id -1.255 -It UM-OLSR -Il 48 -If 0 -Ii 6 -Iv 32 -P olsr -Pn 1 -Ps 0 [-Pt HELLO -Po 7 -Ph 0 -Pms 0] 
s -t 0.259324397 -Hs 8 -Hd -1 -Ni 8 -Nx 75.00 -Ny 500.00 -Nz 0.00 -Ne -1.000000 -Nl RTR -Nw --- -Ma 0 -Md 0 -Ms 0 -Mt 0 -Is 8.255 -Id -1.255 -It UM-OLSR -Il 48 -If 0 -Ii 7 -Iv 32 -P olsr -Pn 1 -Ps 0 [-Pt HELLO -Po 8 -Ph 0 -Pms 0] 
r -t 0.259502869 -Hs 7 -Hd -1 -Ni 7 -Nx 175.00 -Ny 400.00 -Nz 0.00 -Ne -1.000000 -Nl RTR -Nw --- -Ma 0 -Md ffffffff -Ms 8 -Mt 0 -Is 8.255 -Id -1.255 -It UM-OLSR -Il 48 -If 0 -Ii 7 -Iv 32 -P olsr -Pn 1 -Ps 0 [-Pt HELLO -Po 8 -Ph 0 -Pms 0] 
r -t 0.259503299 -Hs 5 -Hd -1 -Ni 5 -Nx 225.00 -Ny 275.00 -Nz 0.00 -Ne -1.000000 -Nl RTR -Nw --- -Ma 0 -Md ffffffff -Ms 8 -Mt 0 -Is 8.255 -Id -1.255 -It UM-OLSR -Il 48 -If 0 -Ii 7 -Iv 32 -P olsr -Pn 1 -Ps 0 [-Pt HELLO -Po 8 -Ph 0 -Pms 0] 
r -t 0.259503401 -Hs 0 -Hd -1 -Ni 0 -Nx 100.00 -Ny 200.00 -Nz 0.00 -Ne -1.000000 -Nl RTR -Nw --- -Ma 0 -Md ffffffff -Ms 8 -Mt 0 -Is 8.255 -Id -1.255 -It UM-OLSR -Il 48 -If 0 -Ii 7 -Iv 32 -P olsr -Pn 1 -Ps 0 [-Pt HELLO -Po 8 -Ph 0 -Pms 0] 
r -t 0.259503558 -Hs 6 -Hd -1 -Ni 6 -Nx 400.00 -Ny 375.00 -Nz 0.00 -Ne -1.000000 -Nl RTR -Nw --- -Ma 0 -Md ffffffff -Ms 8 -Mt 0 -Is 8.255 -Id -1.255 -It UM-OLSR -Il 48 -If 0 -Ii 7 -Iv 32 -P olsr -Pn 1 -Ps 0 [-Pt HELLO -Po 8 -Ph 0 -Pms 0] 
r -t 0.259503647 -Hs 1 -Hd -1 -Ni 1 -Nx 300.00 -Ny 200.00 -Nz 0.00 -Ne -1.000000 -Nl RTR -Nw --- -Ma 0 -Md ffffffff -Ms 8 -Mt 0 -Is 8.255 -Id -1.255 -It UM-OLSR -Il 48 -If 0 -Ii 7 -Iv 32 -P olsr -Pn 1 -Ps 0 [-Pt HELLO -Po 8 -Ph 0 -Pms 0] 
r -t 0.259503836 -Hs 3 -Hd -1 -Ni 3 -Nx 150.00 -Ny 75.00 -Nz 0.00 -Ne -1.000000 -Nl RTR -Nw --- -Ma 0 -Md ffffffff -Ms 8 -Mt 0 -Is 8.255 -Id -1.255 -It UM-OLSR -Il 48 -If 0 -Ii 7 -Iv 32 -P olsr -Pn 1 -Ps 0 [-Pt HELLO -Po 8 -Ph 0 -Pms 0] 
r -t 0.259503907 -Hs 9 -Hd -1 -Ni 9 -Nx 525.00 -Ny 550.00 -Nz 0.00 -Ne -1.000000 -Nl RTR -Nw --- -Ma 0 -Md ffffffff -Ms 8 -Mt 0 -Is 8.255 -Id -1.255 -It UM-OLSR -Il 48 -If 0 -Ii 7 -Iv 32 -P olsr -Pn 1 -Ps 0 [-Pt HELLO -Po 8 -Ph 0 -Pms 0] 
s -t 0.319432572 -Hs 3 -Hd -1 -Ni 3 -Nx 150.00 -Ny 75.00 -Nz 0.00 -Ne -1.000000 -Nl RTR -Nw --- -Ma 0 -Md 0 -Ms 0 -Mt 0 -Is 3.255 -Id -1.255 -It UM-OLSR -Il 48 -If 0 -Ii 8 -Iv 32 -P olsr -Pn 1 -Ps 0 [-Pt HELLO -Po 3 -Ph 0 -Pms 0] 
r -t 0.319611020 -Hs 0 -Hd -1 -Ni 0 -Nx 100.00 -Ny 200.00 -Nz 0.00 -Ne -1.000000 -Nl RTR -Nw --- -Ma 0 -Md ffffffff -Ms 3 -Mt 0 -Is 3.255 -Id -1.255 -It UM-OLSR -Il 48 -If 0 -Ii 8 -Iv 32 -P olsr -Pn 1 -Ps 0 [-Pt HELLO -Po 3 -Ph 0 -Pms 0] 
r -t 0.319611222 -Hs 1 -Hd -1 -Ni 1 -Nx 300.00 -Ny 200.00 -Nz 0.00 -Ne -1.000000 -Nl RTR -Nw --- -Ma 0 -Md ffffffff -Ms 3 -Mt 0 -Is 3.255 -Id -1.255 -It UM-OLSR -Il 48 -If 0 -Ii 8 -Iv 32 -P olsr -Pn 1 -Ps 0 [-Pt HELLO -Po 3 -Ph 0 -Pms 0] 
r -t 0.319611284 -Hs 5 -Hd -1 -Ni 5 -Nx 225.00 -Ny 275.00 -Nz 0.00 -Ne -1.000000 -Nl RTR -Nw --- -Ma 0 -Md ffffffff -Ms 3 -Mt 0 -Is 3.255 -Id -1.255 -It UM-OLSR -Il 48 -If 0 -Ii 8 -Iv 32 -P olsr -Pn 1 -Ps 0 [-Pt HELLO -Po 3 -Ph 0 -Pms 0] 
r -t 0.319611658 -Hs 7 -Hd -1 -Ni 7 -Nx 175.00 -Ny 400.00 -Nz 0.00 -Ne -1.000000 -Nl RTR -Nw --- -Ma 0 -Md ffffffff -Ms 3 -Mt 0 -Is 3.255 -Id -1.255 -It UM-OLSR -Il 48 -If 0 -Ii 8 -Iv 32 -P olsr -Pn 1 -Ps 0 [-Pt HELLO -Po 3 -Ph 0 -Pms 0] 
r -t 0.319611873 -Hs 6 -Hd -1 -Ni 6 -Nx 400.00 -Ny 375.00 -Nz 0.00 -Ne -1.000000 -Nl RTR -Nw --- -Ma 0 -Md ffffffff -Ms 3 -Mt 0 -Is 3.255 -Id -1.255 -It UM-OLSR -Il 48 -If 0 -Ii 8 -Iv 32 -P olsr -Pn 1 -Ps 0 [-Pt HELLO -Po 3 -Ph 0 -Pms 0] 
r -t 0.319612010 -Hs 8 -Hd -1 -Ni 8 -Nx 75.00 -Ny 500.00 -Nz 0.00 -Ne -1.000000 -Nl RTR -Nw --- -Ma 0 -Md ffffffff -Ms 3 -Mt 0 -Is 3.255 -Id -1.255 -It UM-OLSR -Il 48 -If 0 -Ii 8 -Iv 32 -P olsr -Pn 1 -Ps 0 [-Pt HELLO -Po 3 -Ph 0 -Pms 0] 
r -t 0.319612240 -Hs 4 -Hd -1 -Ni 4 -Nx 650.00 -Ny 50.00 -Nz 0.00 -Ne -1.000000 -Nl RTR -Nw --- -Ma 0 -Md ffffffff -Ms 3 -Mt 0 -Is 3.255 -Id -1.255 -It UM-OLSR -Il 48 -If 0 -Ii 8 -Iv 32 -P olsr -Pn 1 -Ps 0 [-Pt HELLO -Po 3 -Ph 0 -Pms 0] 
s -t 0.431033640 -Hs 9 -Hd -1 -Ni 9 -Nx 525.00 -Ny 550.00 -Nz 0.00 -Ne -1.000000 -Nl RTR -Nw --- -Ma 0 -Md 0 -Ms 0 -Mt 0 -Is 9.255 -Id -1.255 -It UM-OLSR -Il 48 -If 0 -Ii 9 -Iv 32 -P olsr -Pn 1 -Ps 0 [-Pt HELLO -Po 9 -Ph 0 -Pms 0] 
r -t 0.431212357 -Hs 6 -Hd -1 -Ni 6 -Nx 400.00 -Ny 375.00 -Nz 0.00 -Ne -1.000000 -Nl RTR -Nw --- -Ma 0 -Md ffffffff -Ms 9 -Mt 0 -Is 9.255 -Id -1.255 -It UM-OLSR -Il 48 -If 0 -Ii 9 -Iv 32 -P olsr -Pn 1 -Ps 0 [-Pt HELLO -Po 9 -Ph 0 -Pms 0] 
r -t 0.431212910 -Hs 7 -Hd -1 -Ni 7 -Nx 175.00 -Ny 400.00 -Nz 0.00 -Ne -1.000000 -Nl RTR -Nw --- -Ma 0 -Md ffffffff -Ms 9 -Mt 0 -Is 9.255 -Id -1.255 -It UM-OLSR -Il 48 -If 0 -Ii 9 -Iv 32 -P olsr -Pn 1 -Ps 0 [-Pt HELLO -Po 9 -Ph 0 -Pms 0] 
r -t 0.431212997 -Hs 5 -Hd -1 -Ni 5 -Nx 225.00 -Ny 275.00 -Nz 0.00 -Ne -1.000000 -Nl RTR -Nw --- -Ma 0 -Md ffffffff -Ms 9 -Mt 0 -Is 9.255 -Id -1.255 -It UM-OLSR -Il 48 -If 0 -Ii 9 -Iv 32 -P olsr -Pn 1 -Ps 0 [-Pt HELLO -Po 9 -Ph 0 -Pms 0] 
r -t 0.431213027 -Hs 1 -Hd -1 -Ni 1 -Nx 300.00 -Ny 200.00 -Nz 0.00 -Ne -1.000000 -Nl RTR -Nw --- -Ma 0 -Md ffffffff -Ms 9 -Mt 0 -Is 9.255 -Id -1.255 -It UM-OLSR -Il 48 -If 0 -Ii 9 -Iv 32 -P olsr -Pn 1 -Ps 0 [-Pt HELLO -Po 9 -Ph 0 -Pms 0] 
r -t 0.431213027 -Hs 2 -Hd -1 -Ni 2 -Nx 750.00 -Ny 200.00 -Nz 0.00 -Ne -1.000000 -Nl RTR -Nw --- -Ma 0 -Md ffffffff -Ms 9 -Mt 0 -Is 9.255 -Id -1.255 -It UM-OLSR -Il 48 -If 0 -Ii 9 -Iv 32 -P olsr -Pn 1 -Ps 0 [-Pt HELLO -Po 9 -Ph 0 -Pms 0] 
r -t 0.431213150 -Hs 8 -Hd -1 -Ni 8 -Nx 75.00 -Ny 500.00 -Nz 0.00 -Ne -1.000000 -Nl RTR -Nw --- -Ma 0 -Md ffffffff -Ms 9 -Mt 0 -Is 9.255 -Id -1.255 -It UM-OLSR -Il 48 -If 0 -Ii 9 -Iv 32 -P olsr -Pn 1 -Ps 0 [-Pt HELLO -Po 9 -Ph 0 -Pms 0] 
r -t 0.431213358 -Hs 4 -Hd -1 -Ni 4 -Nx 650.00 -Ny 50.00 -Nz 0.00 -Ne -1.000000 -Nl RTR -Nw --- -Ma 0 -Md ffffffff -Ms 9 -Mt 0 -Is 9.255 -Id -1.255 -It UM-OLSR -Il 48 -If 0 -Ii 9 -Iv 32 -P olsr -Pn 1 -Ps 0 [-Pt HELLO -Po 9 -Ph 0 -Pms 0] 
s -t 1.597166143 -Hs 2 -Hd -1 -Ni 2 -Nx 750.00 -Ny 200.00 -Nz 0.00 -Ne -1.000000 -Nl RTR -Nw --- -Ma 0 -Md 0 -Ms 0 -Mt 0 -Is 2.255 -Id -1.255 -It UM-OLSR -Il 72 -If 0 -Ii 10 -Iv 32 -P olsr -Pn 1 -Ps 1 [-Pt HELLO -Po 2 -Ph 0 -Pms 1] 
r -t 1.597376744 -Hs 4 -Hd -1 -Ni 4 -Nx 650.00 -Ny 50.00 -Nz 0.00 -Ne -1.000000 -Nl RTR -Nw --- -Ma 0 -Md ffffffff -Ms 2 -Mt 0 -Is 2.255 -Id -1.255 -It UM-OLSR -Il 72 -If 0 -Ii 10 -Iv 32 -P olsr -Pn 1 -Ps 1 [-Pt HELLO -Po 2 -Ph 0 -Pms 1] 
r -t 1.597377448 -Hs 6 -Hd -1 -Ni 6 -Nx 400.00 -Ny 375.00 -Nz 0.00 -Ne -1.000000 -Nl RTR -Nw --- -Ma 0 -Md ffffffff -Ms 2 -Mt 0 -Is 2.255 -Id -1.255 -It UM-OLSR -Il 72 -If 0 -Ii 10 -Iv 32 -P olsr -Pn 1 -Ps 1 [-Pt HELLO -Po 2 -Ph 0 -Pms 1] 
r -t 1.597377530 -Hs 9 -Hd -1 -Ni 9 -Nx 525.00 -Ny 550.00 -Nz 0.00 -Ne -1.000000 -Nl RTR -Nw --- -Ma 0 -Md ffffffff -Ms 2 -Mt 0 -Is 2.255 -Id -1.255 -It UM-OLSR -Il 72 -If 0 -Ii 10 -Iv 32 -P olsr -Pn 1 -Ps 1 [-Pt HELLO -Po 2 -Ph 0 -Pms 1] 
r -t 1.597377643 -Hs 1 -Hd -1 -Ni 1 -Nx 300.00 -Ny 200.00 -Nz 0.00 -Ne -1.000000 -Nl RTR -Nw --- -Ma 0 -Md ffffffff -Ms 2 -Mt 0 -Is 2.255 -Id -1.255 -It UM-OLSR -Il 72 -If 0 -Ii 10 -Iv 32 -P olsr -Pn 1 -Ps 1 [-Pt HELLO -Po 2 -Ph 0 -Pms 1] 
r -t 1.597377911 -Hs 5 -Hd -1 -Ni 5 -Nx 225.00 -Ny 275.00 -Nz 0.00 -Ne -1.000000 -Nl RTR -Nw --- -Ma 0 -Md ffffffff -Ms 2 -Mt 0 -Is 2.255 -Id -1.255 -It UM-OLSR -Il 72 -If 0 -Ii 10 -Iv 32 -P olsr -Pn 1 -Ps 1 [-Pt HELLO -Po 2 -Ph 0 -Pms 1] 
s -t 1.636103056 -Hs 9 -Hd -1 -Ni 9 -Nx 525.00 -Ny 550.00 -Nz 0.00 -Ne -1.000000 -Nl RTR -Nw --- -Ma 0 -Md 0 -Ms 0 -Mt 0 -Is 9.255 -Id -1.255 -It UM-OLSR -Il 80 -If 0 -Ii 11 -Iv 32 -P olsr -Pn 1 -Ps 1 [-Pt HELLO -Po 9 -Ph 0 -Pms 1] 
r -t 1.636321773 -Hs 6 -Hd -1 -Ni 6 -Nx 400.00 -Ny 375.00 -Nz 0.00 -Ne -1.000000 -Nl RTR -Nw --- -Ma 0 -Md ffffffff -Ms 9 -Mt 0 -Is 9.255 -Id -1.255 -It UM-OLSR -Il 80 -If 0 -Ii 11 -Iv 32 -P olsr -Pn 1 -Ps 1 [-Pt HELLO -Po 9 -Ph 0 -Pms 1] 
r -t 1.636322326 -Hs 7 -Hd -1 -Ni 7 -Nx 175.00 -Ny 400.00 -Nz 0.00 -Ne -1.000000 -Nl RTR -Nw --- -Ma 0 -Md ffffffff -Ms 9 -Mt 0 -Is 9.255 -Id -1.255 -It UM-OLSR -Il 80 -If 0 -Ii 11 -Iv 32 -P olsr -Pn 1 -Ps 1 [-Pt HELLO -Po 9 -Ph 0 -Pms 1] 
r -t 1.636322413 -Hs 5 -Hd -1 -Ni 5 -Nx 225.00 -Ny 275.00 -Nz 0.00 -Ne -1.000000 -Nl RTR -Nw --- -Ma 0 -Md ffffffff -Ms 9 -Mt 0 -Is 9.255 -Id -1.255 -It UM-OLSR -Il 80 -If 0 -Ii 11 -Iv 32 -P olsr -Pn 1 -Ps 1 [-Pt HELLO -Po 9 -Ph 0 -Pms 1] 
r -t 1.636322443 -Hs 1 -Hd -1 -Ni 1 -Nx 300.00 -Ny 200.00 -Nz 0.00 -Ne -1.000000 -Nl RTR -Nw --- -Ma 0 -Md ffffffff -Ms 9 -Mt 0 -Is 9.255 -Id -1.255 -It UM-OLSR -Il 80 -If 0 -Ii 11 -Iv 32 -P olsr -Pn 1 -Ps 1 [-Pt HELLO -Po 9 -Ph 0 -Pms 1] 
r -t 1.636322443 -Hs 2 -Hd -1 -Ni 2 -Nx 750.00 -Ny 200.00 -Nz 0.00 -Ne -1.000000 -Nl RTR -Nw --- -Ma 0 -Md ffffffff -Ms 9 -Mt 0 -Is 9.255 -Id -1.255 -It UM-OLSR -Il 80 -If 0 -Ii 11 -Iv 32 -P olsr -Pn 1 -Ps 1 [-Pt HELLO -Po 9 -Ph 0 -Pms 1] 
r -t 1.636322566 -Hs 8 -Hd -1 -Ni 8 -Nx 75.00 -Ny 500.00 -Nz 0.00 -Ne -1.000000 -Nl RTR -Nw --- -Ma 0 -Md ffffffff -Ms 9 -Mt 0 -Is 9.255 -Id -1.255 -It UM-OLSR -Il 80 -If 0 -Ii 11 -Iv 32 -P olsr -Pn 1 -Ps 1 [-Pt HELLO -Po 9 -Ph 0 -Pms 1] 
r -t 1.636322774 -Hs 4 -Hd -1 -Ni 4 -Nx 650.00 -Ny 50.00 -Nz 0.00 -Ne -1.000000 -Nl RTR -Nw --- -Ma 0 -Md ffffffff -Ms 9 -Mt 0 -Is 9.255 -Id -1.255 -It UM-OLSR -Il 80 -If 0 -Ii 11 -Iv 32 -P olsr -Pn 1 -Ps 1 [-Pt HELLO -Po 9 -Ph 0 -Pms 1] 
s -t 1.884734762 -Hs 7 -Hd -1 -Ni 7 -Nx 175.00 -Ny 400.00 -Nz 0.00 -Ne -1.000000 -Nl RTR -Nw --- -Ma 0 -Md 0 -Ms 0 -Mt 0 -Is 7.255 -Id -1.255 -It UM-OLSR -Il 84 -If 0 -Ii 12 -Iv 32 -P olsr -Pn 1 -Ps 1 [-Pt HELLO -Po 7 -Ph 0 -Pms 1] 
r -t 1.884961211 -Hs 5 -Hd -1 -Ni 5 -Nx 225.00 -Ny 275.00 -Nz 0.00 -Ne -1.000000 -Nl RTR -Nw --- -Ma 0 -Md ffffffff -Ms 7 -Mt 0 -Is 7.255 -Id -1.255 -It UM-OLSR -Il 84 -If 0 -Ii 12 -Iv 32 -P olsr -Pn 1 -Ps 1 [-Pt HELLO -Po 7 -Ph 0 -Pms 1] 
r -t 1.884961233 -Hs 8 -Hd -1 -Ni 8 -Nx 75.00 -Ny 500.00 -Nz 0.00 -Ne -1.000000 -Nl RTR -Nw --- -Ma 0 -Md ffffffff -Ms 7 -Mt 0 -Is 7.255 -Id -1.255 -It UM-OLSR -Il 84 -If 0 -Ii 12 -Iv 32 -P olsr -Pn 1 -Ps 1 [-Pt HELLO -Po 7 -Ph 0 -Pms 1] 
r -t 1.884961474 -Hs 0 -Hd -1 -Ni 0 -Nx 100.00 -Ny 200.00 -Nz 0.00 -Ne -1.000000 -Nl RTR -Nw --- -Ma 0 -Md ffffffff -Ms 7 -Mt 0 -Is 7.255 -Id -1.255 -It UM-OLSR -Il 84 -If 0 -Ii 12 -Iv 32 -P olsr -Pn 1 -Ps 1 [-Pt HELLO -Po 7 -Ph 0 -Pms 1] 
r -t 1.884961516 -Hs 6 -Hd -1 -Ni 6 -Nx 400.00 -Ny 375.00 -Nz 0.00 -Ne -1.000000 -Nl RTR -Nw --- -Ma 0 -Md ffffffff -Ms 7 -Mt 0 -Is 7.255 -Id -1.255 -It UM-OLSR -Il 84 -If 0 -Ii 12 -Iv 32 -P olsr -Pn 1 -Ps 1 [-Pt HELLO -Po 7 -Ph 0 -Pms 1] 
r -t 1.884961548 -Hs 1 -Hd -1 -Ni 1 -Nx 300.00 -Ny 200.00 -Nz 0.00 -Ne -1.000000 -Nl RTR -Nw --- -Ma 0 -Md ffffffff -Ms 7 -Mt 0 -Is 7.255 -Id -1.255 -It UM-OLSR -Il 84 -If 0 -Ii 12 -Iv 32 -P olsr -Pn 1 -Ps 1 [-Pt HELLO -Po 7 -Ph 0 -Pms 1] 
r -t 1.884961848 -Hs 3 -Hd -1 -Ni 3 -Nx 150.00 -Ny 75.00 -Nz 0.00 -Ne -1.000000 -Nl RTR -Nw --- -Ma 0 -Md ffffffff -Ms 7 -Mt 0 -Is 7.255 -Id -1.255 -It UM-OLSR -Il 84 -If 0 -Ii 12 -Iv 32 -P olsr -Pn 1 -Ps 1 [-Pt HELLO -Po 7 -Ph 0 -Pms 1] 
r -t 1.884962031 -Hs 9 -Hd -1 -Ni 9 -Nx 525.00 -Ny 550.00 -Nz 0.00 -Ne -1.000000 -Nl RTR -Nw --- -Ma 0 -Md ffffffff -Ms 7 -Mt 0 -Is 7.255 -Id -1.255 -It UM-OLSR -Il 84 -If 0 -Ii 12 -Iv 32 -P olsr -Pn 1 -Ps 1 [-Pt HELLO -Po 7 -Ph 0 -Pms 1] 
s -t 2.043268628 -Hs 5 -Hd -1 -Ni 5 -Nx 225.00 -Ny 275.00 -Nz 0.00 -Ne -1.000000 -Nl RTR -Nw --- -Ma 0 -Md 0 -Ms 0 -Mt 0 -Is 5.255 -Id -1.255 -It UM-OLSR -Il 88 -If 0 -Ii 13 -Iv 32 -P olsr -Pn 1 -Ps 1 [-Pt HELLO -Po 5 -Ph 0 -Pms 1] 
r -t 2.043498982 -Hs 1 -Hd -1 -Ni 1 -Nx 300.00 -Ny 200.00 -Nz 0.00 -Ne -1.000000 -Nl RTR -Nw --- -Ma 0 -Md ffffffff -Ms 5 -Mt 0 -Is 5.255 -Id -1.255 -It UM-OLSR -Il 88 -If 0 -Ii 13 -Iv 32 -P olsr -Pn 1 -Ps 1 [-Pt HELLO -Po 5 -Ph 0 -Pms 1] 
r -t 2.043499077 -Hs 7 -Hd -1 -Ni 7 -Nx 175.00 -Ny 400.00 -Nz 0.00 -Ne -1.000000 -Nl RTR -Nw --- -Ma 0 -Md ffffffff -Ms 5 -Mt 0 -Is 5.255 -Id -1.255 -It UM-OLSR -Il 88 -If 0 -Ii 13 -Iv 32 -P olsr -Pn 1 -Ps 1 [-Pt HELLO -Po 5 -Ph 0 -Pms 1] 
r -t 2.043499114 -Hs 0 -Hd -1 -Ni 0 -Nx 100.00 -Ny 200.00 -Nz 0.00 -Ne -1.000000 -Nl RTR -Nw --- -Ma 0 -Md ffffffff -Ms 5 -Mt 0 -Is 5.255 -Id -1.255 -It UM-OLSR -Il 88 -If 0 -Ii 13 -Iv 32 -P olsr -Pn 1 -Ps 1 [-Pt HELLO -Po 5 -Ph 0 -Pms 1] 
r -t 2.043499300 -Hs 6 -Hd -1 -Ni 6 -Nx 400.00 -Ny 375.00 -Nz 0.00 -Ne -1.000000 -Nl RTR -Nw --- -Ma 0 -Md ffffffff -Ms 5 -Mt 0 -Is 5.255 -Id -1.255 -It UM-OLSR -Il 88 -If 0 -Ii 13 -Iv 32 -P olsr -Pn 1 -Ps 1 [-Pt HELLO -Po 5 -Ph 0 -Pms 1] 
r -t 2.043499340 -Hs 3 -Hd -1 -Ni 3 -Nx 150.00 -Ny 75.00 -Nz 0.00 -Ne -1.000000 -Nl RTR -Nw --- -Ma 0 -Md ffffffff -Ms 5 -Mt 0 -Is 5.255 -Id -1.255 -It UM-OLSR -Il 88 -If 0 -Ii 13 -Iv 32 -P olsr -Pn 1 -Ps 1 [-Pt HELLO -Po 5 -Ph 0 -Pms 1] 
r -t 2.043499529 -Hs 8 -Hd -1 -Ni 8 -Nx 75.00 -Ny 500.00 -Nz 0.00 -Ne -1.000000 -Nl RTR -Nw --- -Ma 0 -Md ffffffff -Ms 5 -Mt 0 -Is 5.255 -Id -1.255 -It UM-OLSR -Il 88 -If 0 -Ii 13 -Iv 32 -P olsr -Pn 1 -Ps 1 [-Pt HELLO -Po 5 -Ph 0 -Pms 1] 
r -t 2.043499985 -Hs 9 -Hd -1 -Ni 9 -Nx 525.00 -Ny 550.00 -Nz 0.00 -Ne -1.000000 -Nl RTR -Nw --- -Ma 0 -Md ffffffff -Ms 5 -Mt 0 -Is 5.255 -Id -1.255 -It UM-OLSR -Il 88 -If 0 -Ii 13 -Iv 32 -P olsr -Pn 1 -Ps 1 [-Pt HELLO -Po 5 -Ph 0 -Pms 1] 
r -t 2.043500231 -Hs 4 -Hd -1 -Ni 4 -Nx 650.00 -Ny 50.00 -Nz 0.00 -Ne -1.000000 -Nl RTR -Nw --- -Ma 0 -Md ffffffff -Ms 5 -Mt 0 -Is 5.255 -Id -1.255 -It UM-OLSR -Il 88 -If 0 -Ii 13 -Iv 32 -P olsr -Pn 1 -Ps 1 [-Pt HELLO -Po 5 -Ph 0 -Pms 1] 
r -t 2.043500396 -Hs 2 -Hd -1 -Ni 2 -Nx 750.00 -Ny 200.00 -Nz 0.00 -Ne -1.000000 -Nl RTR -Nw --- -Ma 0 -Md ffffffff -Ms 5 -Mt 0 -Is 5.255 -Id -1.255 -It UM-OLSR -Il 88 -If 0 -Ii 13 -Iv 32 -P olsr -Pn 1 -Ps 1 [-Pt HELLO -Po 5 -Ph 0 -Pms 1] 
s -t 2.056371589 -Hs 0 -Hd -1 -Ni 0 -Nx 100.00 -Ny 200.00 -Nz 0.00 -Ne -1.000000 -Nl RTR -Nw --- -Ma 0 -Md 0 -Ms 0 -Mt 0 -Is 0.255 -Id -1.255 -It UM-OLSR -Il 76 -If 0 -Ii 14 -Iv 32 -P olsr -Pn 1 -Ps 1 [-Pt HELLO -Po 0 -Ph 0 -Pms 1] 
r -t 2.056586037 -Hs 3 -Hd -1 -Ni 3 -Nx 150.00 -Ny 75.00 -Nz 0.00 -Ne -1.000000 -Nl RTR -Nw --- -Ma 0 -Md ffffffff -Ms 0 -Mt 0 -Is 0.255 -Id -1.255 -It UM-OLSR -Il 76 -If 0 -Ii 14 -Iv 32 -P olsr -Pn 1 -Ps 1 [-Pt HELLO -Po 0 -Ph 0 -Pms 1] 
r -t 2.056586074 -Hs 5 -Hd -1 -Ni 5 -Nx 225.00 -Ny 275.00 -Nz 0.00 -Ne -1.000000 -Nl RTR -Nw --- -Ma 0 -Md ffffffff -Ms 0 -Mt 0 -Is 0.255 -Id -1.255 -It UM-OLSR -Il 76 -If 0 -Ii 14 -Iv 32 -P olsr -Pn 1 -Ps 1 [-Pt HELLO -Po 0 -Ph 0 -Pms 1] 
r -t 2.056586255 -Hs 1 -Hd -1 -Ni 1 -Nx 300.00 -Ny 200.00 -Nz 0.00 -Ne -1.000000 -Nl RTR -Nw --- -Ma 0 -Md ffffffff -Ms 0 -Mt 0 -Is 0.255 -Id -1.255 -It UM-OLSR -Il 76 -If 0 -Ii 14 -Iv 32 -P olsr -Pn 1 -Ps 1 [-Pt HELLO -Po 0 -Ph 0 -Pms 1] 
r -t 2.056586301 -Hs 7 -Hd -1 -Ni 7 -Nx 175.00 -Ny 400.00 -Nz 0.00 -Ne -1.000000 -Nl RTR -Nw --- -Ma 0 -Md ffffffff -Ms 0 -Mt 0 -Is 0.255 -Id -1.255 -It UM-OLSR -Il 76 -If 0 -Ii 14 -Iv 32 -P olsr -Pn 1 -Ps 1 [-Pt HELLO -Po 0 -Ph 0 -Pms 1] 
r -t 2.056586592 -Hs 8 -Hd -1 -Ni 8 -Nx 75.00 -Ny 500.00 -Nz 0.00 -Ne -1.000000 -Nl RTR -Nw --- -Ma 0 -Md ffffffff -Ms 0 -Mt 0 -Is 0.255 -Id -1.255 -It UM-OLSR -Il 76 -If 0 -Ii 14 -Iv 32 -P olsr -Pn 1 -Ps 1 [-Pt HELLO -Po 0 -Ph 0 -Pms 1] 
r -t 2.056586746 -Hs 6 -Hd -1 -Ni 6 -Nx 400.00 -Ny 375.00 -Nz 0.00 -Ne -1.000000 -Nl RTR -Nw --- -Ma 0 -Md ffffffff -Ms 0 -Mt 0 -Is 0.255 -Id -1.255 -It UM-OLSR -Il 76 -If 0 -Ii 14 -Iv 32 -P olsr -Pn 1 -Ps 1 [-Pt HELLO -Po 0 -Ph 0 -Pms 1] 
s -t 2.116278645 -Hs 8 -Hd -1 -Ni 8 -Nx 75.00 -Ny 500.00 -Nz 0.00 -Ne -1.000000 -Nl RTR -Nw --- -Ma 0 -Md 0 -Ms 0 -Mt 0 -Is 8.255 -Id -1.255 -It UM-OLSR -Il 84 -If 0 -Ii 15 -Iv 32 -P olsr -Pn 1 -Ps 1 [-Pt HELLO -Po 8 -Ph 0 -Pms 1] 
r -t 2.116505116 -Hs 7 -Hd -1 -Ni 7 -Nx 175.00 -Ny 400.00 -Nz 0.00 -Ne -1.000000 -Nl RTR -Nw --- -Ma 0 -Md ffffffff -Ms 8 -Mt 0 -Is 8.255 -Id -1.255 -It UM-OLSR -Il 84 -If 0 -Ii 15 -Iv 32 -P olsr -Pn 1 -Ps 1 [-Pt HELLO -Po 8 -Ph 0 -Pms 1] 
r -t 2.116505546 -Hs 5 -Hd -1 -Ni 5 -Nx 225.00 -Ny 275.00 -Nz 0.00 -Ne -1.000000 -Nl RTR -Nw --- -Ma 0 -Md ffffffff -Ms 8 -Mt 0 -Is 8.255 -Id -1.255 -It UM-OLSR -Il 84 -If 0 -Ii 15 -Iv 32 -P olsr -Pn 1 -Ps 1 [-Pt HELLO -Po 8 -Ph 0 -Pms 1] 
r -t 2.116505649 -Hs 0 -Hd -1 -Ni 0 -Nx 100.00 -Ny 200.00 -Nz 0.00 -Ne -1.000000 -Nl RTR -Nw --- -Ma 0 -Md ffffffff -Ms 8 -Mt 0 -Is 8.255 -Id -1.255 -It UM-OLSR -Il 84 -If 0 -Ii 15 -Iv 32 -P olsr -Pn 1 -Ps 1 [-Pt HELLO -Po 8 -Ph 0 -Pms 1] 